견적저장일,Cas No,Name,Supplier,Cat No,Unit,ea,purity,비고
2019-12-31,1341446-83-0,3-cyclobutylprop-2-ynoic acid,,,1g,1,95%,
2019-12-31,1341446-83-0,3-cyclobutylprop-2-ynoic acid,,,5g,1,95%,
2019-12-31,6053-88-9,3-cyclopentylprop-2-ynoic acid,,,1g,1,95%,
2019-12-31,6053-88-9,3-cyclopentylprop-2-ynoic acid,,,5g,1,95%,